# vtk DataFile Version 3.0
vtk output
ASCII
DATASET UNSTRUCTURED_GRID
POINTS 15860 double
-2.528488e-02	-2.795676e-02	0.0	-2.342627e-02	-2.615249e-02	0.0	-2.166380e-02	-2.449463e-02	0.0	-1.993935e-02	-2.294843e-02	0.0	-1.822813e-02	-2.148901e-02	0.0	-1.651824e-02	-2.010021e-02	0.0	-1.480388e-02	-1.877016e-02	0.0	-1.308222e-02	-1.748925e-02	0.0	-1.165305e-02	-1.646180e-02	0.0	-1.020704e-02	-1.545046e-02	0.0	-8.768472e-03	-1.446790e-02	0.0	-7.363313e-03	-1.352649e-02	0.0	-6.014932e-03	-1.263612e-02	0.0	-4.742637e-03	-1.180422e-02	0.0	-3.560058e-03	-1.103699e-02	0.0	-2.479197e-03	-1.033310e-02	0.0	-1.507115e-03	-9.689338e-03	0.0	-6.449046e-04	-9.103730e-03	0.0	1.093219e-04	-8.572562e-03	0.0	7.624012e-04	-8.094425e-03	0.0	1.321552e-03	-7.665801e-03	0.0	1.796463e-03	-7.284234e-03	0.0	2.196694e-03	-6.946728e-03	0.0	2.531970e-03	-6.650068e-03	0.0	2.811726e-03	-6.391366e-03	0.0	3.044435e-03	-6.167204e-03	0.0	3.237657e-03	-5.974303e-03	0.0	3.398081e-03	-5.809349e-03	0.0	3.531320e-03	-5.669148e-03	0.0	3.641633e-03	-5.550234e-03	0.0	3.732974e-03	-5.449755e-03	0.0	3.808612e-03	-5.365126e-03	0.0	3.871063e-03	-5.293928e-03	0.0	3.922706e-03	-5.234221e-03	0.0	3.965436e-03	-5.184271e-03	0.0	4.000791e-03	-5.142560e-03	0.0	4.030043e-03	-5.107784e-03	0.0	4.054242e-03	-5.078831e-03	0.0	4.074258e-03	-5.054756e-03	0.0	4.090809e-03	-5.034761e-03	0.0	4.104492e-03	-5.018170e-03	0.0	4.115800e-03	-5.004418e-03	0.0	4.125142e-03	-4.993029e-03	0.0	4.132855e-03	-4.983606e-03	0.0	4.139221e-03	-4.975815e-03	0.0	4.144472e-03	-4.969380e-03	0.0	4.148800e-03	-4.964070e-03	0.0	4.152365e-03	-4.959691e-03	0.0	4.155299e-03	-4.956085e-03	0.0	4.157712e-03	-4.953117e-03	0.0	4.159694e-03	-4.950678e-03	0.0	4.161319e-03	-4.948677e-03	0.0	4.162651e-03	-4.947037e-03	0.0	4.163740e-03	-4.945695e-03	0.0	4.164629e-03	-4.944600e-03	0.0	4.165352e-03	-4.943709e-03	0.0	4.165940e-03	-4.942985e-03	0.0	4.166415e-03	-4.942399e-03	0.0	4.166797e-03	-4.941928e-03	0.0	-2.733843e-02	-2.993254e-02	0.0	4.167103e-03	-4.941551e-03	0.0	-2.262166e-02	-2.811742e-02	0.0	-1.982508e-02	-2.809114e-02	0.0	-1.723537e-02	-2.809685e-02	0.0	-1.484870e-02	-2.813020e-02	0.0	-1.263612e-02	-2.819225e-02	0.0	-1.057171e-02	-2.828255e-02	0.0	-8.635213e-03	-2.840116e-02	0.0	-6.810771e-03	-2.854829e-02	0.0	-5.085740e-03	-2.872420e-02	0.0	-3.449825e-03	-2.892908e-02	0.0	-1.894501e-03	-2.916307e-02	0.0	-4.126098e-04	-2.942620e-02	0.0	1.001933e-03	-2.971838e-02	0.0	2.354346e-03	-3.003948e-02	0.0	3.649143e-03	-3.038926e-02	0.0	4.890255e-03	-3.076740e-02	0.0	6.081130e-03	-3.117352e-02	0.0	7.224809e-03	-3.160718e-02	0.0	8.323992e-03	-3.206787e-02	0.0	9.381088e-03	-3.255503e-02	0.0	1.039826e-02	-3.306804e-02	0.0	1.137746e-02	-3.360624e-02	0.0	1.232047e-02	-3.416890e-02	0.0	1.322892e-02	-3.475524e-02	0.0	1.410432e-02	-3.536443e-02	0.0	1.494805e-02	-3.599558e-02	0.0	1.576142e-02	-3.664776e-02	0.0	1.654566e-02	-3.731999e-02	0.0	1.730194e-02	-3.801123e-02	0.0	1.803136e-02	-3.872041e-02	0.0	1.873499e-02	-3.944642e-02	0.0	1.941385e-02	-4.018810e-02	0.0	2.006893e-02	-4.094429e-02	0.0	2.070118e-02	-4.171376e-02	0.0	2.131154e-02	-4.249530e-02	0.0	2.190090e-02	-4.328765e-02	0.0	2.247017e-02	-4.408954e-02	0.0	2.302020e-02	-4.489968e-02	0.0	2.355185e-02	-4.571678e-02	0.0	2.406594e-02	-4.653952e-02	0.0	2.456331e-02	-4.736659e-02	0.0	2.504477e-02	-4.819665e-02	0.0	2.551111e-02	-4.902837e-02	0.0	2.596314e-02	-4.986041e-02	0.0	2.640165e-02	-5.069142e-02	0.0	2.682741e-02	-5.152007e-02	0.0	2.724123e-02	-5.234503e-02	0.0	2.764387e-02	-5.316498e-02	0.0	2.803612e-02	-5.397863e-02	0.0	2.841877e-02	-5.478472e-02	0.0	2.879260e-02	-5.558201e-02	0.0	2.915839e-02	-5.636932e-02	0.0	2.951696e-02	-5.714551e-02	0.0	2.986909e-02	-5.790952e-02	0.0	3.021559e-02	-5.866032e-02	0.0	3.055728e-02	-5.939698e-02	0.0	3.089499e-02	-6.011863e-02	0.0	3.122954e-02	-6.082450e-02	0.0	3.156178e-02	-6.151389e-02	0.0	3.189257e-02	-6.218621e-02	0.0	3.222278e-02	-6.284094e-02	0.0	3.255328e-02	-6.347770e-02	0.0	3.288496e-02	-6.409616e-02	0.0	3.321874e-02	-6.469612e-02	0.0	3.355555e-02	-6.527746e-02	0.0	3.389633e-02	-6.584015e-02	0.0	3.424207e-02	-6.638425e-02	0.0	3.459377e-02	-6.690987e-02	0.0	3.495248e-02	-6.741719e-02	0.0	3.531927e-02	-6.790642e-02	0.0	3.569528e-02	-6.837780e-02	0.0	3.608168e-02	-6.883159e-02	0.0	3.647971e-02	-6.926803e-02	0.0	3.689067e-02	-6.968734e-02	0.0	3.731591e-02	-7.008971e-02	0.0	3.775687e-02	-7.047529e-02	0.0	3.821509e-02	-7.084418e-02	0.0	3.869218e-02	-7.119643e-02	0.0	3.918986e-02	-7.153203e-02	0.0	3.970996e-02	-7.185091e-02	0.0	4.025446e-02	-7.215293e-02	0.0	4.082547e-02	-7.243786e-02	0.0	4.142529e-02	-7.270536e-02	0.0	4.205639e-02	-7.295496e-02	0.0	4.272149e-02	-7.318599e-02	0.0	4.342353e-02	-7.339741e-02	0.0	4.416573e-02	-7.358764e-02	0.0	4.495147e-02	-7.375395e-02	0.0	4.578393e-02	-7.389112e-02	0.0	4.666405e-02	-7.398719e-02	0.0	4.758044e-02	-7.400629e-02	0.0	4.844761e-02	-7.380019e-02	0.0	4.916762e-02	-7.278509e-02	0.0	4.985991e-02	-7.154202e-02	0.0	5.051980e-02	-7.018981e-02	0.0	5.114815e-02	-6.874322e-02	0.0	5.174712e-02	-6.719708e-02	0.0	5.231904e-02	-6.553996e-02	0.0	5.286623e-02	-6.375580e-02	0.0	5.339096e-02	-6.182254e-02	0.0	5.389513e-02	-5.970887e-02	0.0	5.437735e-02	-5.736939e-02	0.0	5.483326e-02	-5.475060e-02	0.0	5.509243e-02	-5.185603e-02	0.0	5.498637e-02	-4.897763e-02	0.0	5.474887e-02	-4.628144e-02	0.0	5.447003e-02	-4.378624e-02	0.0	5.415424e-02	-4.146027e-02	0.0	5.380618e-02	-3.927345e-02	0.0	5.342865e-02	-3.720325e-02	0.0	5.302412e-02	-3.523305e-02	0.0	5.259475e-02	-3.335029e-02	0.0	5.214222e-02	-3.154525e-02	0.0	5.166755e-02	-2.981012e-02	0.0	5.117097e-02	-2.813835e-02	0.0	5.065185e-02	-2.652422e-02	0.0	5.010858e-02	-2.496280e-02	0.0	4.953870e-02	-2.345186e-02	0.0	4.893906e-02	-2.200407e-02	0.0	4.830200e-02	-2.072614e-02	0.0	4.746791e-02	-2.014940e-02	0.0	4.656281e-02	-1.977456e-02	0.0	4.568891e-02	-1.946037e-02	0.0	4.486074e-02	-1.916747e-02	0.0	4.407826e-02	-1.888036e-02	0.0	4.333863e-02	-1.859135e-02	0.0	4.263862e-02	-1.829607e-02	0.0	4.197511e-02	-1.799178e-02	0.0	4.134521e-02	-1.767669e-02	0.0	4.074623e-02	-1.734956e-02	0.0	4.017572e-02	-1.700952e-02	0.0	3.963141e-02	-1.665592e-02	0.0	3.911119e-02	-1.628825e-02	0.0	3.861310e-02	-1.590614e-02	0.0	3.813530e-02	-1.550925e-02	0.0	3.767610e-02	-1.509730e-02	0.0	3.723388e-02	-1.467004e-02	0.0	3.680713e-02	-1.422722e-02	0.0	3.639443e-02	-1.376860e-02	0.0	3.599443e-02	-1.329393e-02	0.0	3.560585e-02	-1.280299e-02	0.0	3.522748e-02	-1.229553e-02	0.0	3.485816e-02	-1.177136e-02	0.0	3.449677e-02	-1.123027e-02	0.0	3.414226e-02	-1.067212e-02	0.0	3.379361e-02	-1.009677e-02	0.0	3.344983e-02	-9.504175e-03	0.0	3.310996e-02	-8.894332e-03	0.0	3.277307e-02	-8.267314e-03	0.0	3.243827e-02	-7.623271e-03	0.0	3.210466e-02	-6.962437e-03	0.0	3.177138e-02	-6.285130e-03	0.0	3.143757e-02	-5.591760e-03	0.0	3.110240e-02	-4.882824e-03	0.0	3.076505e-02	-4.158908e-03	0.0	3.042468e-02	-3.420685e-03	0.0	3.008051e-02	-2.668910e-03	0.0	2.973171e-02	-1.904420e-03	0.0	2.937751e-02	-1.128126e-03	0.0	2.901711e-02	-3.410095e-04	0.0	2.864974e-02	4.558823e-04	0.0	2.827460e-02	1.261445e-03	0.0	2.789092e-02	2.074525e-03	0.0	2.749794e-02	2.893923e-03	0.0	2.709485e-02	3.718406e-03	0.0	2.668090e-02	4.546716e-03	0.0	2.625528e-02	5.377572e-03	0.0	2.581722e-02	6.209683e-03	0.0	2.536592e-02	7.041749e-03	0.0	2.490056e-02	7.872468e-03	0.0	2.442033e-02	8.700540e-03	0.0	2.392441e-02	9.524666e-03	0.0	2.341193e-02	1.034355e-02	0.0	2.288205e-02	1.115591e-02	0.0	2.233387e-02	1.196045e-02	0.0	2.176650e-02	1.275589e-02	0.0	2.117901e-02	1.354097e-02	0.0	2.057047e-02	1.431440e-02	0.0	1.993990e-02	1.507492e-02	0.0	1.928632e-02	1.582127e-02	0.0	1.860870e-02	1.655220e-02	0.0	1.790601e-02	1.726646e-02	0.0	1.717716e-02	1.796284e-02	0.0	1.642106e-02	1.864013e-02	0.0	1.563656e-02	1.929715e-02	0.0	1.482246e-02	1.993276e-02	0.0	1.397750e-02	2.054584e-02	0.0	1.310038e-02	2.113533e-02	0.0	1.218969e-02	2.170021e-02	0.0	1.124393e-02	2.223952e-02	0.0	1.026150e-02	2.275235e-02	0.0	9.240618e-03	2.323787e-02	0.0	8.179373e-03	2.369528e-02	0.0	7.075633e-03	2.412390e-02	0.0	5.927033e-03	2.452309e-02	0.0	4.730924e-03	2.489229e-02	0.0	3.484321e-03	2.523103e-02	0.0	2.183838e-03	2.553892e-02	0.0	8.256127e-04	2.581563e-02	0.0	-5.947939e-04	2.606092e-02	0.0	-2.082521e-03	2.627461e-02	0.0	-3.643571e-03	2.645658e-02	0.0	-5.285020e-03	2.660674e-02	0.0	-7.015312e-03	2.672494e-02	0.0	-8.844663e-03	2.681095e-02	0.0	-1.078565e-02	2.686427e-02	0.0	-1.285406e-02	2.688390e-02	0.0	-1.507006e-02	2.686779e-02	0.0	-1.745925e-02	2.681182e-02	0.0	-2.004940e-02	2.670507e-02	0.0	-2.283761e-02	2.652766e-02	0.0	-2.548080e-02	2.602145e-02	0.0	-2.704781e-02	2.446291e-02	0.0	-2.816227e-02	2.249644e-02	0.0	-2.905338e-02	2.046968e-02	0.0	-2.978900e-02	1.844262e-02	0.0	-3.040374e-02	1.642813e-02	0.0	-3.091802e-02	1.442797e-02	0.0	-3.134563e-02	1.244127e-02	0.0	-3.169633e-02	1.046648e-02	0.0	-3.197730e-02	8.501965e-03	0.0	-3.219388e-02	6.546132e-03	0.0	-3.235003e-02	4.597541e-03	0.0	-3.244871e-02	2.654893e-03	0.0	-3.249200e-02	7.170259e-04	0.0	-3.248132e-02	-1.217120e-03	0.0	-3.241747e-02	-3.148541e-03	0.0	-3.230070e-02	-5.078217e-03	0.0	-3.213072e-02	-7.007173e-03	0.0	-3.190668e-02	-8.936527e-03	0.0	-3.162706e-02	-1.086755e-02	0.0	-3.128951e-02	-1.280173e-02	0.0	-3.089062e-02	-1.474075e-02	0.0	-3.042551e-02	-1.668652e-02	0.0	-2.988709e-02	-1.864113e-02	0.0	-2.926497e-02	-2.060659e-02	0.0	-2.854343e-02	-2.258393e-02	0.0	-2.769676e-02	-2.456689e-02	0.0	-2.668112e-02	-2.650549e-02	0.0	-2.129999e-02	-2.655439e-02	0.0	-1.890541e-02	-2.669367e-02	0.0	-1.653764e-02	-2.678204e-02	0.0	-1.428442e-02	-2.687209e-02	0.0	-1.215943e-02	-2.697814e-02	0.0	-1.015717e-02	-2.710569e-02	0.0	-8.267514e-03	-2.725738e-02	0.0	-6.480077e-03	-2.743479e-02	0.0	-4.785333e-03	-2.763887e-02	0.0	-3.174881e-03	-2.787024e-02	0.0	-1.641406e-03	-2.812925e-02	0.0	-1.785493e-04	-2.841607e-02	0.0	1.219220e-03	-2.873069e-02	0.0	2.556728e-03	-2.907302e-02	0.0	3.838204e-03	-2.944282e-02	0.0	5.067365e-03	-2.983981e-02	0.0	6.247495e-03	-3.026363e-02	0.0	7.381509e-03	-3.071385e-02	0.0	8.472000e-03	-3.119000e-02	0.0	9.5
[...]
POINT_DATA 15860

SCALARS Density double 1
LOOKUP_TABLE default
1.775466e-01	1.775460e-01	1.775540e-01	1.775693e-01	1.775928e-01	1.776253e-01	1.776678e-01	1.777207e-01	1.777746e-01	1.778374e-01	1.779084e-01	1.779861e-01	1.780677e-01	1.781500e-01	1.782294e-01	1.783025e-01	1.783672e-01	1.784220e-01	1.784666e-01	1.785018e-01	1.785287e-01	1.785490e-01	1.785642e-01	1.785755e-01	1.785841e-01	1.785906e-01	1.785955e-01	1.785991e-01	1.786017e-01	1.786033e-01	1.786041e-01	1.786041e-01	1.786034e-01	1.786019e-01	1.785998e-01	1.785967e-01	1.785920e-01	1.785833e-01	1.785661e-01	1.785328e-01	1.784930e-01	1.784510e-01	1.784143e-01	1.783847e-01	1.783623e-01	1.783459e-01	1.783371e-01	1.783268e-01	1.783201e-01	1.783156e-01	1.783129e-01	1.783114e-01	1.783105e-01	1.783102e-01	1.783101e-01	1.783101e-01	1.783103e-01	1.783104e-01	1.783106e-01	1.775444e-01	1.783107e-01	1.775083e-01	1.774733e-01	1.774246e-01	1.773657e-01	1.772955e-01	1.772132e-01	1.771175e-01	1.770075e-01	1.768820e-01	1.767400e-01	1.765804e-01	1.764018e-01	1.762033e-01	1.759832e-01	1.757400e-01	1.754718e-01	1.751767e-01	1.748522e-01	1.744951e-01	1.741022e-01	1.736697e-01	1.731934e-01	1.726687e-01	1.720906e-01	1.714538e-01	1.707529e-01	1.699822e-01	1.691362e-01	1.682098e-01	1.671986e-01	1.660994e-01	1.649102e-01	1.636312e-01	1.622646e-01	1.608149e-01	1.592891e-01	1.576958e-01	1.560477e-01	1.543601e-01	1.526443e-01	1.509109e-01	1.491707e-01	1.474346e-01	1.457134e-01	1.440195e-01	1.423686e-01	1.407823e-01	1.392896e-01	1.379257e-01	1.367270e-01	1.357217e-01	1.349147e-01	1.342867e-01	1.337989e-01	1.333906e-01	1.330073e-01	1.326193e-01	1.322210e-01	1.318184e-01	1.314197e-01	1.310325e-01	1.306638e-01	1.303195e-01	1.300043e-01	1.297206e-01	1.294694e-01	1.292504e-01	1.290623e-01	1.289032e-01	1.287715e-01	1.286652e-01	1.285830e-01	1.285230e-01	1.284840e-01	1.284644e-01	1.284628e-01	1.284758e-01	1.285046e-01	1.285445e-01	1.285713e-01	1.286658e-01	1.288298e-01	1.287012e-01	1.273661e-01	1.252895e-01	1.245335e-01	1.259728e-01	1.281159e-01	1.290956e-01	1.293454e-01	1.294095e-01	1.295487e-01	1.297687e-01	1.300122e-01	1.302968e-01	1.306438e-01	1.310453e-01	1.313962e-01	1.314917e-01	1.312017e-01	1.307391e-01	1.304960e-01	1.308475e-01	1.317006e-01	1.322273e-01	1.321914e-01	1.320085e-01	1.317416e-01	1.314576e-01	1.311824e-01	1.309246e-01	1.306831e-01	1.304591e-01	1.302521e-01	1.300602e-01	1.298854e-01	1.297325e-01	1.296108e-01	1.295295e-01	1.294257e-01	1.291986e-01	1.285477e-01	1.272662e-01	1.255780e-01	1.249558e-01	1.258226e-01	1.274956e-01	1.284516e-01	1.284871e-01	1.283024e-01	1.281678e-01	1.280989e-01	1.280275e-01	1.279601e-01	1.279063e-01	1.278618e-01	1.278277e-01	1.278057e-01	1.277975e-01	1.278056e-01	1.278326e-01	1.278810e-01	1.279532e-01	1.280517e-01	1.281787e-01	1.283362e-01	1.285262e-01	1.287504e-01	1.290097e-01	1.293041e-01	1.296318e-01	1.299895e-01	1.303719e-01	1.307728e-01	1.311849e-01	1.316012e-01	1.320158e-01	1.324305e-01	1.328651e-01	1.333620e-01	1.339736e-01	1.347405e-01	1.356844e-01	1.368101e-01	1.380970e-01	1.395157e-01	1.410345e-01	1.426260e-01	1.442698e-01	1.459510e-01	1.476588e-01	1.493844e-01	1.511189e-01	1.528525e-01	1.545746e-01	1.562746e-01	1.579392e-01	1.595498e-01	1.610922e-01	1.625563e-01	1.639343e-01	1.652212e-01	1.664148e-01	1.675154e-01	1.685252e-01	1.694482e-01	1.702892e-01	1.710538e-01	1.717480e-01	1.723775e-01	1.729480e-01	1.734651e-01	1.739336e-01	1.743581e-01	1.747427e-01	1.750918e-01	1.754079e-01	1.756939e-01	1.759519e-01	1.761843e-01	1.763928e-01	1.765791e-01	1.767448e-01	1.768913e-01	1.770200e-01	1.771322e-01	1.772291e-01	1.773120e-01	1.773820e-01	1.774402e-01	1.774858e-01	1.775151e-01	1.775305e-01	1.775398e-01	1.775488e-01	1.775596e-01	1.775716e-01	1.775844e-01	1.775976e-01	1.776108e-01	1.776238e-01	1.776362e-01	1.776476e-01	1.776578e-01	1.776665e-01	1.776735e-01	1.776787e-01	1.776818e-01	1.776828e-01	1.776816e-01	1.776781e-01	1.776724e-01	1.776643e-01	1.776539e-01	1.776413e-01	1.776264e-01	1.776094e-01	1.775902e-01	1.775646e-01	1.775142e-01	1.774823e-01	1.774390e-01	1.773864e-01	1.773230e-01	1.772479e-01	1.771602e-01	1.770588e-01	1.769429e-01	1.768114e-01	1.766634e-01	1.764978e-01	1.763137e-01	1.761096e-01	1.758845e-01	1.756368e-01	1.753645e-01	1.750654e-01	1.747368e-01	1.743757e-01	1.739787e-01	1.735421e-01	1.730615e-01	1.725323e-01	1.719497e-01	1.713082e-01	1.706025e-01	1.698271e-01	1.689767e-01	1.680464e-01	1.670320e-01	1.659304e-01	1.647400e-01	1.634611e-01	1.620958e-01	1.606485e-01	1.591258e-01	1.575359e-01	1.558909e-01	1.542048e-01	1.524888e-01	1.507534e-01	1.490100e-01	1.472699e-01	1.455448e-01	1.438488e-01	1.422002e-01	1.406246e-01	1.391553e-01	1.378317e-01	1.366909e-01	1.357585e-01	1.350277e-01	1.344753e-01	1.340477e-01	1.336783e-01	1.333170e-01	1.329422e-01	1.325539e-01	1.321606e-01	1.317711e-01	1.313930e-01	1.310332e-01	1.306975e-01	1.303900e-01	1.301131e-01	1.298674e-01	1.296523e-01	1.294666e-01	1.293085e-01	1.291760e-01	1.290674e-01	1.289813e-01	1.289163e-01	1.288720e-01	1.288475e-01	1.288403e-01	1.288552e-01	1.288760e-01	1.288966e-01	1.290317e-01	1.291110e-01	1.285348e-01	1.263640e-01	1.244736e-01	1.247925e-01	1.272524e-01	1.289053e-01	1.294677e-01	1.295255e-01	1.296401e-01	1.297875e-01	1.300072e-01	1.302674e-01	1.305721e-01	1.309348e-01	1.313532e-01	1.317463e-01	1.319358e-01	1.317481e-01	1.312374e-01	1.307285e-01	1.306026e-01	1.310316e-01	1.315553e-01	1.317017e-01	1.316772e-01	1.315527e-01	1.313745e-01	1.311724e-01	1.309616e-01	1.307461e-01	1.305268e-01	1.303093e-01	1.300956e-01	1.298828e-01	1.296660e-01	1.294378e-01	1.291932e-01	1.288332e-01	1.281936e-01	1.271339e-01	1.258760e-01	1.251960e-01	1.257283e-01	1.271278e-01	1.282555e-01	1.284595e-01	1.282956e-01	1.281182e-01	1.280137e-01	1.279296e-01	1.278404e-01	1.277614e-01	1.276933e-01	1.276340e-01	1.275846e-01	1.275456e-01	1.275182e-01	1.275042e-01	1.275061e-01	1.275266e-01	1.275686e-01	1.276350e-01	1.277287e-01	1.278522e-01	1.280078e-01	1.281977e-01	1.284235e-01	1.286858e-01	1.289843e-01	1.293168e-01	1.296795e-01	1.300668e-01	1.304723e-01	1.308890e-01	1.313101e-01	1.317322e-01	1.321623e-01	1.326277e-01	1.331732e-01	1.338456e-01	1.346743e-01	1.356779e-01	1.368501e-01	1.381681e-01	1.396022e-01	1.411236e-01	1.427097e-01	1.443441e-01	1.460151e-01	1.477141e-01	1.494339e-01	1.511668e-01	1.529035e-01	1.546334e-01	1.563453e-01	1.580239e-01	1.596487e-01	1.612047e-01	1.626808e-01	1.640687e-01	1.653632e-01	1.665622e-01	1.676661e-01	1.686776e-01	1.696007e-01	1.704409e-01	1.712038e-01	1.718955e-01	1.725222e-01	1.730895e-01	1.736030e-01	1.740676e-01	1.744876e-01	1.748689e-01	1.752135e-01	1.755246e-01	1.758050e-01	1.760570e-01	1.762829e-01	1.764846e-01	1.766637e-01	1.768219e-01	1.769607e-01	1.770814e-01	1.771855e-01	1.772741e-01	1.773481e-01	1.774085e-01	1.774546e-01	1.774889e-01	1.775076e-01	1.775222e-01	1.775349e-01	1.775486e-01	1.775633e-01	1.775787e-01	1.775944e-01	1.776101e-01	1.776253e-01	1.776397e-01	1.776529e-01	1.776648e-01	1.776749e-01	1.776832e-01	1.776893e-01	1.776931e-01	1.776946e-01	1.776935e-01	1.776900e-01	1.776838e-01	1.776751e-01	1.776638e-01	1.776500e-01	1.776337e-01	1.776149e-01	1.775933e-01	1.775674e-01	1.775248e-01	1.774950e-01	1.774565e-01	1.774093e-01	1.773520e-01	1.772836e-01	1.772032e-01	1.771098e-01	1.770026e-01	1.768806e-01	1.767430e-01	1.765890e-01	1.764179e-01	1.762285e-01	1.760197e-01	1.757902e-01	1.755383e-01	1.752619e-01	1.749587e-01	1.746261e-01	1.742609e-01	1.738596e-01	1.734184e-01	1.729329e-01	1.723984e-01	1.718101e-01	1.711628e-01	1.704509e-01	1.696692e-01	1.688126e-01	1.678763e-01	1.668564e-01	1.657501e-01	1.645559e-01	1.632742e-01	1.619073e-01	1.604593e-01	1.589365e-01	1.573470e-01	1.557021e-01	1.540153e-01	1.522977e-01	1.505602e-01	1.488142e-01	1.470716e-01	1.453451e-01	1.436503e-01	1.420085e-01	1.404495e-01	1.390113e-01	1.377366e-01	1.366632e-01	1.358100e-01	1.351624e-01	1.346868e-01	1.343167e-01	1.339831e-01	1.336430e-01	1.332825e-01	1.329064e-01	1.325246e-01	1.321464e-01	1.317793e-01	1.314302e-01	1.311046e-01	1.308061e-01	1.305370e-01	1.302979e-01	1.300881e-01	1.299061e-01	1.297502e-01	1.296184e-01	1.295090e-01	1.294205e-01	1.293520e-01	1.293029e-01	1.292720e-01	1.292664e-01	1.292590e-01	1.292879e-01	1.294535e-01	1.293698e-01	1.281537e-01	1.256359e-01	1.244208e-01	1.257862e-01	1.283401e-01	1.294580e-01	1.297116e-01	1.297846e-01	1.299196e-01	1.300886e-01	1.303183e-01	1.305930e-01	1.309099e-01	1.312786e-01	1.317000e-01	1.321153e-01	1.323830e-01	1.323185e-01	1.318509e-01	1.311793e-01	1.306566e-01	1.305480e-01	1.306974e-01	1.308024e-01	1.308573e-01	1.308390e-01	1.307623e-01	1.306411e-01	1.304855e-01	1.302998e-01	1.300844e-01	1.298468e-01	1.295903e-01	1.293087e-01	1.289918e-01	1.286125e-01	1.281379e-01	1.275131e-01	1.267252e-01	1.259048e-01	1.255551e-01	1.259890e-01	1.271058e-01	1.281467e-01	1.284707e-01	1.283423e-01	1.281419e-01	1.280008e-01	1.278993e-01	1.277963e-01	1.276956e-01	1.276054e-01	1.275237e-01	1.274504e-01	1.273864e-01	1.273318e-01	1.272874e-01	1.272543e-01	1.272342e-01	1.272297e-01	1.272434e-01	1.272787e-01	1.273390e-01	1.274273e-01	1.275468e-01	1.276999e-01	1.278891e-01	1.281157e-01	1.283804e-01	1.286823e-01	1.290188e-01	1.293856e-01	1.297767e-01	1.301858e-01	1.306058e-01	1.310310e-01	1.314611e-01	1.319093e-01	1.324087e-01	1.330041e-01	1.337339e-01	1.346211e-01	1.356763e-01	1.368858e-01	1.382252e-01	1.396660e-01	1.411837e-01	1.427597e-01	1.443806e-01	1.460373e-01	1.477259e-01	1.494398e-01	1.511723e-01	1.529146e-01	1.546559e-01	1.563840e-01	1.580813e-01	1.597246e-01	1.612981e-01	1.627897e-01	1.641906e-01	1.654954e-01	1.667021e-01	1.678113e-01	1.688259e-01	1.697506e-01	1.705909e-01	1.713530e-01	1.720430e-01	1.726673e-01	1.732318e-01	1.737418e-01	1.742019e-01	1.746194e-01	1.749961e-01	1.753356e-01	1.756411e-01	1.759152e-01	1.761606e-01	1.763792e-01	1.765731e-01	1.767440e-01	1.768938e-01	1.770238e-01	1.771354e-01	1.772300e-01	1.773086e-01	1.773722e-01	1.774215e-01	1.774581e-01	1.774822e-01	1.775022e-01	1.775194e-01	1.775368e-01	1.775548e-01	1.775732e-01	1.775917e-01	1.776101e-01	1.776277e-01	1.776444e-01	1.776598e-01	1.776735e-01	1.776853e-01	1.776950e-01	1.777022e-01	1.777069e-01	1.777089e-01	1.777082e-01	1.777047e-01	1.776983e-01	1.776891e-01	1.776771e-01	1.776624e-01	1.776449e-01	1.776247e-01	1.776021e-01	1.775764e-01	1.775423e-01	1.775138e-01	1.774789e-01	1.774364e-01	1.773845e-01	1.773221e-01	1.772482e-01	1.771618e-01	1.770623e-01	1.769489e-01	1.768208e-01	1.766773e-01	1.765178e-01	1.763414e-01	1.761472e-01	1.759339e-01	1.757002e-01	1.754443e-01	1.751640e-01	1.748568e-01	1.745200e-01	1.741504e-01	1.737443e-01	1.732979e-01	1.728067e-01	1.722660e-01	1.716709e-01	1.710163e-01	1.702968e-01	1.695071e-01	1.686424e-01	1.676981e-01	1.666705e-01	1.655570e-01	1.643565e-01	1.630693e-01	1.616979e-01	1.602464e-01	1.587206e-01	1.571288e-01	1.554817e-01	1.537925e-01	1.520727e-01	1.503332e-01	1.485859e-01	1.468426e-01	1.451171e-01	1.434268e-01	1.417964e-01	1.402600e-01	1.388605e-01	1.376436e-01	1.366467e-01	1.358783e-01	1.353193e-01	1.349208e-01	1.346050e-01	1.343053e-01	1.339867e-01	1.336427e-01	1.332813e-01	1.329136e-01	1.325490e-01	1.321953e-01	1.318588e-01	1.315449e-01	1.312570e-01	1.309971e-01	1.307658e-01	1.305624e-01	1.303857e-01	1.302338e-01	1.301049e-01	1.299970e-01	1.299087e-01	1.298380e-01	1.297849e-01	1.297543e-01	1.297129e-01	1.297555e-01	1.298902e-01	1.295113e-01	1.274796e-01	1.249045e-01	1.246286e-01	1.270472e-01	1.292468e-01	1.299961e-01	1.300313e-01	1.301471e-01	1.302869e-01	1.304695e-01	1.307052e-01	1.309865e-01	1.313073e-01	1.316715e-01	1.320798e-01	1.324944e-01	1.328110e-01	1.328669e-01	1.325353e-01	1.318636e-01	1.311191e-01	1.305772e-01	1.302751e-01	1.300621e-01	1.299022e-01	1.297872e-01	1.296705e-01	1.295416e-01	1.293908e-01	1.292105e-01	1.289923e-01	1.287337e-01	1.284343e-01	1.280948e-01	1.277210e-01	1.273220e-01	1.269040e-01	1.264907e-01	1.261642e-01	1.261387e-01	1.265905e-01	1.274342e-01	1.282309e-01	1.285413e-01	1.284302e-01	1.282216e-01	1.280539e-01	1.279314e-01	1.278154e-01	1.276978e-01	1.275877e-01	1.274861e-01	1.273919e-01	1.273057e-01	1.272281e-01	1.271593e-01	1.270997e-01	1.270500e-01	1.270110e-01	1.269847e-01	1.269734e-01	1.269800e-01	1.270081e-01	1.270616e-01	1.271440e-01	1.272589e-01	1.274091e-01	1.275971e-01	1.278244e-01	1.280912e-01	1.283963e-01	1.287363e-01	1.291064e-01	1.295005e-01	1.299120e-01	1.303343e-01	1.307631e-01	1.312024e-01	1.316719e-01	1.322087e-01	1.328543e-01	1.336373e-01	1.345782e-01	1.356762e-01	1.369136e-01	1.382648e-01	1.397041e-01	1.412107e-01	1.427704e-01	1.443734e-01	1.460149e-01	1.476909e-01	1.493990e-01	1.511328e-01	1.528837e-01	1.546405e-01	1.563897e-01	1.581104e-01	1.597767e-01	1.613718e-01	1.628825e-01	1.642995e-01	1.656173e-01	1.668338e-01	1.679501e-01	1.689694e-01	1.698969e-01	1.707384e-01	1.715003e-01	1.721892e-01	1.728115e-01	1.733730e-01	1.738788e-01	1.743375e-01	1.747506e-01	1.751223e-01	1.754562e-01	1.757552e-01	1.760224e-01	1.762601e-01	1.764708e-01	1.766561e-01	1.768173e-01	1.769572e-01	1.770770e-01	1.771784e-01	1.772625e-01	1.773306e-01	1.773843e-01	1.774251e-01	1.774551e-01	1.774804e-01	1.775027e-01	1.775244e-01	1.775461e-01	1.775680e-01	1.775898e-01	1.776111e-01	1.776316e-01	1.776509e-01	1.776687e-01	1.776846e-01	1.776982e-01	1.777095e-01	1.777180e-01	1.777237e-01	1.777265e-01	1.777263e-01	1.777230e-01	1.777166e-01	1.777071e-01	1.776946e-01	1.776792e-01	1.776610e-01	1.776401e-01	1.776173e-01	1.775925e-01	1.775676e-01	1.775404e-01	1.775083e-01	1.774695e-01	1.774221e-01	1.773649e-01	1.772968e-01	1.772167e-01	1.771239e-01	1.770178e-01	1.768978e-01	1.767635e-01	1.766143e-01	1.764495e-01	1.762683e-01	1.760697e-01	1.758524e-01	1.756148e-01	1.753549e-01	1.750707e-01	1.747594e-01	1.744182e-01	1.740437e-01	1.736322e-01	1.731798e-01	1.726819e-01	1.721339e-01	1.715307e-01	1.708674e-01	1.701386e-01	1.693392e-01	1.684645e-01	1.675100e-01	1.664725e-01	1.653495e-01	1.641402e-01	1.628451e-01	1.614666e-01	1.600089e-01	1.584776e-01	1.568810e-01	1.552299e-01	1.535373e-01	1.518152e-01	1.500746e-01	1.483273e-01	1.465855e-01	1.448636e-01	1.431811e-01	1.415665e-01	1.400588e-01	1.387058e-01	1.375555e-01	1.366431e-01	1.359664e-01	1.355000e-01	1.351766e-01	1.349122e-01	1.346456e-01	1.343503e-01	1.340255e-01	1.336818e-01	1.333312e-01	1.329832e-01	1.326454e-01	1.323239e-01	1.320237e-01	1.317481e-01	1.314989e-01	1.312767e-01	1.310812e-01	1.309114e-01	1.307657e-01	1.306421e-01	1.305390e-01	1.304527e-01	1.303851e-01	1.303326e-01	1.302662e-01	1.303294e-01	1.303403e-01	1.294817e-01	1.267767e-01	1.245510e-01	1.253232e-01	1.281620e-01	1.299569e-01	1.304856e-01	1.304596e-01	1.305893e-01	1.307343e-01	1.309228e-01	1.311610e-01	1.314437e-01	1.317620e-01	1.321125e-01	1.324933e-01	1.328824e-01	1.332084e-01	1.333521e-01	1.331911e-01	1.326857e-01	1.319362e-01	1.311824e-01	1.305608e-01	1.300410e-01	1.296210e-01	1.292825e-01	1.289996e-01	1.287447e-01	1.285085e-01	1.282869e-01	1.280707e-01	1.278468e-01	1.276136e-01	1.273789e-01	1.271521e-01	1.269539e-01	1.268163e-01	1.268051e-01	1.269937e-01	1.274105e-01	1.280219e-01	1.285155e-01	1.286879e-01	1.285717e-01	1.283521e-01	1.281672e-01	1.280248e-01	1.278944e-01	1.277620e-01	1.276336e-01	1.275131e-01	1.273997e-01	1.272934e-01	1.271951e-01	1.271049e-01	1.270231e-01	1.269499e-01	1.268855e-01	1.268304e-01	1.267856e-01	1.267526e-01	1.267339e-01	1.267328e-01	1.267533e-01	1.267995e-01	1.268757e-01	1.269858e-01	1.271331e-01	1.273201e-01	1.275482e-01	1.278172e-01	1.281252e-01	1.284683e-01	1.288412e-01	1.292373e-01	1.296502e-01	1.300739e-01	1.305065e-01	1.309570e-01	1.314512e-01	1.320276e-01	1.327215e-01	1.335553e-01	1.345426e-01	1.356743e-01	1.369297e-01	1.382834e-01	1.397128e-01	1.412014e-01	1.427389e-01	1.443199e-01	1.459425e-01	1.476058e-01	1.493085e-01	1.510457e-01	1.528088e-01	1.545858e-01	1.563614e-01	1.581102e-01	1.598041e-01	1.614248e-01	1.629581e-01	1.643943e-01	1.657276e-01	1.669560e-01	1.680811e-01	1.691066e-01	1.700380e-01	1.708815e-01	1.716439e-01	1.723321e-01	1.729523e-01	1.735102e-01	1.740159e-01	1.744706e-01	1.748790e-01	1.752452e-01	1.755727e-01	1.758648e-01	1.761251e-01	1.763535e-01	1.765541e-01	1.767292e-01	1.768806e-01	1.770100e-01	1.771193e-01	1.772101e-01	1.772841e-01	1.773432e-01	1.773896e-01	1.774260e-01	1.774572e-01	1.774850e-01	1.775115e-01	1.775376e-01	1.775635e-01	1.775889e-01	1.776137e-01	1.776374e-01	1.776597e-01	1.776801e-01	1.776984e-01	1.777142e-01	1.777273e-01	1.777374e-01	1.777443e-01	1.777481e-01	1.777485e-01	1.777456e-01	1.777394e-01	1.777299e-01	1.777173e-01	1.777016e-01	1.776831e-01	1.776623e-01	1.776398e-01	1.776160e-01	1.776016e-01	1.775759e-01	1.775461e-01	1.775102e-01	1.774665e-01	1.774135e-01	1.773499e-01	1.772749e-01	1.771877e-01	1.770879e-01	1.769750e-01	1.768487e-01	1.767086e-01	1.765540e-01	1.763844e-01	1.761988e-01	1.759962e-01	1.757751e-01	1.755337e-01	1.752701e-01	1.749818e-01	1.746662e-01	1.743201e-01	1.739402e-01	1.735226e-01	1.730632e-01	1.725575e-01	1.720008e-01	1.713882e-01	1.707146e-01	1.699748e-01	1.691638e-01	1.682771e-01	1.673104e-01	1.662607e-01	1.651260e-01	1.639055e-01	1.626001e-01	1.612122e-01	1.597458e-01	1.582066e-01	1.566033e-01	1.549468e-01	1.532506e-01	1.515266e-01	1.497862e-01	1.480408e-01	1.463026e-01	1.445868e-01	1.429155e-01	1.413213e-01	1.398483e-01	1.385493e-01	1.374743e-01	1.366527e-01	1.360751e-01	1.357028e-01	1.354524e-01	1.352378e-01	1.350050e-01	1.347357e-01	1.344339e-01	1.341117e-01	1.337818e-01	1.334537e-01	1.331348e-01	1.328310e-01	1.325468e-01	1.322854e-01	1.320487e-01	1.318373e-01	1.316513e-01	1.314900e-01	1.313521e-01	1.312365e-01	1.311391e-01	1.310643e-01	1.309974e-01	1.309289e-01	1.310253e-01	1.308534e-01	1.294097e-01	1.263571e-01	1.247608e-01	1.263709e-01	1.291677e-01	1.306381e-01	1.309790e-01	1.309715e-01	1.311002e-01	1.312533e-01	1.314457e-01	1.316849e-01	1.319643e-01	1.322729e-01	1.326011e-01	1.329421e-01	1.332816e-01	1.335775e-01	1.337515e-01	1.337136e-01	1.334151e-01	1.328676e-01	1.321697e-01	1.314514e-01	1.307909e-01	1.302272e-01	1.297614e-01	1.293770e-01	1.290517e-01	1.287719e-01	1.285323e-01	1.283271e-01	1.281493e-01	1.279997e-01	1.278826e-01	1.278109e-01	1.278057e-01	1.278911e-01	1.280730e-01	1.283677e-01	1.286876e-01	1.288954e-01	1.289043e-01	1.287535e-01	1.285347e-01	1.283385e-01	1.281808e-01	1.280348e-01	1.278877e-01	1.277423e-01	1.276031e-01	1.274705e-01	1.273445e-01	1.272259e-01	1.271153e-01	1.270129e-01	1.269188e-01	1.268331e-01	1.267556e-01	1.266864e-01	1.266257e-01	1.265746e-01	1.265346e-01	1.265082e-01	1.264993e-01	1.265119e-01	1.265510e-01	1.266211e-01	1.267266e-01	1.268712e-01	1.270575e-01	1.272866e-01	1.275579e-01	1.278687e-01	1.282145e-01	1.285894e-01	1.289867e-01	1.294000e-01	1.298246e-01	1.302619e-01	1.307264e-01	1.312487e-01	1.318657e-01	1.326049e-01	1.334859e-01	1.345113e-01	1.356671e-01	1.369302e-01	1.382769e-01	1.396881e-01	1.411516e-01	1.426615e-01	1.442162e-01	1.458175e-01	1.474667e-01	1.491657e-01	1.509089e-01	1.526883e-01	1.544906e-01	1.562983e-01	1.580798e-01	1.598055e-01	1.614557e-01	1.630151e-01	1.644732e-01	1.658242e-01	1.670665e-01	1.682019e-01	1.692349e-01	1.701713e-01	1.710177e-01	1.717811e-01	1.724686e-01	1.730860e-01	1.736454e-01	1.741479e-01	1.745986e-01	1.750021e-01	1.753620e-01	1.756846e-01	1.759673e-01	1.762175e-01	1.764368e-01	1.766276e-01	1.767922e-01	1.769329e-01	1.770518e-01	1.771508e-01	1.772322e-01	1.772982e-01	1.773514e-01	1.773949e-01	1.774326e-01	1.774665e-01	1.774986e-01	1.775296e-01	1.775600e-01	1.775897e-01	1.776184e-01	1.776457e-01	1.776713e-01	1.776948e-01	1.777159e-01	1.777341e-01	1.777493e-01	1.777612e-01	1.777697e-01	1.777746e-01	1.777760e-01	1.777737e-01	1.777680e-01	1.777588e-01	1.777463e-01	1.777308e-01	1.777126e-01	1.776922e-01	1.776705e-01	1.776479e-01	1.776454e-01	1.776211e-01	1.775931e-01	1.775595e-01	1.775184e-01	1.774684e-01	1.774083e-01	1.773371e-01	1.772544e-01	1.771597e-01	1.770528e-01	1.769333e-01	1.768010e-01	1.766555e-01	1.764963e-01	1.763224e-01	1.761331e-01	1.759268e-01	1.757021e-01	1.754571e-01	1.751896e-01	1.748971e-01	1.745766e-01	1.742251e-01	1.738390e-01	1.734143e-01	1.729469e-01	1.724322e-01	1.718655e-01	1.712418e-01	1.705562e-01	1.698036e-01	1.689791e-01	1.680782e-01	1.670972e-01	1.660332e-01	1.648844e-01	1.636506e-01	1.62332