# vtk DataFile Version 3.0
vtk output
ASCII
DATASET UNSTRUCTURED_GRID
POINTS 240 double
4.167103e-03	-4.941551e-03	0.0	4.784035e-03	-5.444556e-03	0.0	5.395929e-03	-5.953667e-03	0.0	6.007068e-03	-6.463676e-03	0.0	6.624416e-03	-6.974932e-03	0.0	7.251925e-03	-7.491236e-03	0.0	7.888390e-03	-8.013818e-03	0.0	8.531556e-03	-8.545193e-03	0.0	9.178029e-03	-9.089190e-03	0.0	9.826157e-03	-9.647355e-03	0.0	1.047522e-02	-1.022019e-02	0.0	1.112479e-02	-1.080774e-02	0.0	1.177641e-02	-1.140791e-02	0.0	1.243125e-02	-1.201916e-02	0.0	1.309035e-02	-1.264011e-02	0.0	1.375385e-02	-1.327039e-02	0.0	1.441987e-02	-1.391168e-02	0.0	1.508745e-02	-1.456476e-02	0.0	1.575477e-02	-1.523117e-02	0.0	1.641890e-02	-1.591333e-02	0.0	1.707877e-02	-1.661191e-02	0.0	1.773270e-02	-1.732797e-02	0.0	1.838110e-02	-1.806046e-02	0.0	1.902375e-02	-1.880919e-02	0.0	1.966043e-02	-1.957387e-02	0.0	2.029125e-02	-2.035386e-02	0.0	2.091512e-02	-2.114959e-02	0.0	2.153116e-02	-2.196133e-02	0.0	2.213703e-02	-2.279029e-02	0.0	2.273194e-02	-2.363632e-02	0.0	2.331535e-02	-2.449936e-02	0.0	2.388656e-02	-2.537925e-02	0.0	2.444656e-02	-2.627468e-02	0.0	2.499672e-02	-2.718436e-02	0.0	2.553594e-02	-2.810460e-02	0.0	2.606283e-02	-2.903195e-02	0.0	2.657789e-02	-2.996781e-02	0.0	2.708043e-02	-3.091261e-02	0.0	2.756886e-02	-3.186463e-02	0.0	2.804139e-02	-3.282218e-02	0.0	2.849824e-02	-3.378252e-02	0.0	2.894075e-02	-3.474249e-02	0.0	2.936972e-02	-3.569933e-02	0.0	2.978588e-02	-3.665031e-02	0.0	3.018951e-02	-3.759294e-02	0.0	3.057964e-02	-3.852531e-02	0.0	3.095452e-02	-3.944579e-02	0.0	3.131316e-02	-4.035246e-02	0.0	3.165526e-02	-4.124309e-02	0.0	3.198207e-02	-4.211489e-02	0.0	3.229634e-02	-4.296454e-02	0.0	3.260064e-02	-4.378889e-02	0.0	3.289585e-02	-4.458539e-02	0.0	3.318147e-02	-4.535199e-02	0.0	3.345581e-02	-4.608711e-02	0.0	3.371615e-02	-4.678954e-02	0.0	3.396029e-02	-4.745787e-02	0.0	3.418808e-02	-4.808992e-02	0.0	3.440052e-02	-4.868311e-02	0.0	3.459867e-02	-4.923485e-02	0.0	3.478330e-02	-4.974265e-02	0.0	3.495422e-02	-5.020435e-02	0.0	3.510957e-02	-5.061840e-02	0.0	3.524697e-02	-5.098347e-02	0.0	3.536465e-02	-5.129800e-02	0.0	3.546169e-02	-5.156012e-02	0.0	3.553632e-02	-5.176832e-02	0.0	3.559609e-02	-5.191820e-02	0.0	3.564029e-02	-5.200532e-02	0.0	3.567913e-02	-5.205848e-02	0.0	3.572341e-02	-5.210805e-02	0.0	3.577164e-02	-5.215311e-02	0.0	3.582376e-02	-5.219374e-02	0.0	3.587929e-02	-5.222972e-02	0.0	3.593742e-02	-5.226110e-02	0.0	3.599793e-02	-5.228760e-02	0.0	3.606054e-02	-5.230895e-02	0.0	3.612468e-02	-5.232491e-02	0.0	3.618990e-02	-5.233513e-02	0.0	3.625592e-02	-5.233937e-02	0.0	3.632202e-02	-5.233755e-02	0.0	3.638984e-02	-5.232916e-02	0.0	3.646128e-02	-5.231283e-02	0.0	3.653543e-02	-5.228710e-02	0.0	3.661101e-02	-5.225064e-02	0.0	3.668649e-02	-5.220227e-02	0.0	3.675991e-02	-5.214088e-02	0.0	3.682879e-02	-5.206559e-02	0.0	3.689018e-02	-5.197591e-02	0.0	3.693985e-02	-5.187149e-02	0.0	3.697279e-02	-5.175294e-02	0.0	3.698267e-02	-5.162246e-02	0.0	3.696816e-02	-5.148526e-02	0.0	3.693796e-02	-5.134154e-02	0.0	3.689884e-02	-5.119140e-02	0.0	3.686015e-02	-5.103217e-02	0.0	3.681958e-02	-5.086405e-02	0.0	3.677671e-02	-5.068684e-02	0.0	3.673152e-02	-5.050022e-02	0.0	3.668394e-02	-5.030390e-02	0.0	3.663392e-02	-5.009759e-02	0.0	3.658140e-02	-4.988098e-02	0.0	3.652632e-02	-4.965379e-02	0.0	3.646864e-02	-4.941571e-02	0.0	3.640829e-02	-4.916645e-02	0.0	3.634523e-02	-4.890570e-02	0.0	3.627938e-02	-4.863318e-02	0.0	3.621069e-02	-4.834859e-02	0.0	3.613909e-02	-4.805163e-02	0.0	3.606447e-02	-4.774202e-02	0.0	3.598677e-02	-4.741947e-02	0.0	3.590589e-02	-4.708368e-02	0.0	3.582171e-02	-4.673438e-02	0.0	3.573414e-02	-4.637128e-02	0.0	3.564309e-02	-4.599408e-02	0.0	3.554845e-02	-4.560251e-02	0.0	3.545015e-02	-4.519628e-02	0.0	3.534811e-02	-4.477508e-02	0.0	3.524228e-02	-4.433862e-02	0.0	3.513260e-02	-4.388661e-02	0.0	3.501907e-02	-4.341874e-02	0.0	3.490167e-02	-4.293470e-02	0.0	3.478034e-02	-4.243418e-02	0.0	3.465509e-02	-4.191689e-02	0.0	3.452586e-02	-4.138253e-02	0.0	3.439260e-02	-4.083079e-02	0.0	3.425526e-02	-4.026138e-02	0.0	3.411370e-02	-3.967402e-02	0.0	3.396784e-02	-3.906842e-02	0.0	3.381977e-02	-3.845362e-02	0.0	3.367163e-02	-3.783882e-02	0.0	3.352169e-02	-3.721696e-02	0.0	3.336819e-02	-3.658104e-02	0.0	3.321111e-02	-3.593124e-02	0.0	3.305046e-02	-3.526771e-02	0.0	3.288627e-02	-3.459063e-02	0.0	3.271853e-02	-3.390014e-02	0.0	3.254725e-02	-3.319642e-02	0.0	3.237239e-02	-3.247965e-02	0.0	3.219387e-02	-3.174999e-02	0.0	3.201155e-02	-3.100765e-02	0.0	3.182531e-02	-3.025284e-02	0.0	3.163499e-02	-2.948575e-02	0.0	3.144027e-02	-2.870663e-02	0.0	3.124080e-02	-2.791572e-02	0.0	3.103641e-02	-2.711326e-02	0.0	3.082687e-02	-2.629946e-02	0.0	3.061193e-02	-2.547456e-02	0.0	3.039142e-02	-2.463878e-02	0.0	3.016528e-02	-2.379231e-02	0.0	2.993346e-02	-2.293533e-02	0.0	2.969597e-02	-2.206802e-02	0.0	2.945280e-02	-2.119055e-02	0.0	2.920391e-02	-2.030311e-02	0.0	2.894917e-02	-1.940591e-02	0.0	2.868841e-02	-1.849918e-02	0.0	2.842129e-02	-1.758318e-02	0.0	2.814732e-02	-1.665826e-02	0.0	2.786587e-02	-1.572478e-02	0.0	2.757623e-02	-1.478315e-02	0.0	2.727763e-02	-1.383381e-02	0.0	2.696928e-02	-1.287723e-02	0.0	2.665191e-02	-1.191846e-02	0.0	2.632641e-02	-1.096243e-02	0.0	2.599223e-02	-1.000939e-02	0.0	2.564888e-02	-9.059615e-03	0.0	2.529783e-02	-8.118620e-03	0.0	2.494074e-02	-7.191908e-03	0.0	2.457744e-02	-6.279745e-03	0.0	2.420769e-02	-5.382440e-03	0.0	2.383123e-02	-4.500317e-03	0.0	2.344782e-02	-3.633730e-03	0.0	2.305724e-02	-2.783034e-03	0.0	2.265927e-02	-1.948612e-03	0.0	2.225380e-02	-1.130816e-03	0.0	2.184066e-02	-3.300484e-04	0.0	2.141976e-02	4.532941e-04	0.0	2.099087e-02	1.218713e-03	0.0	2.055361e-02	1.965598e-03	0.0	2.010749e-02	2.693180e-03	0.0	1.965160e-02	3.400377e-03	0.0	1.918495e-02	4.085898e-03	0.0	1.870620e-02	4.748024e-03	0.0	1.821372e-02	5.384582e-03	0.0	1.770610e-02	5.993162e-03	0.0	1.718171e-02	6.570725e-03	0.0	1.663914e-02	7.113796e-03	0.0	1.607776e-02	7.618895e-03	0.0	1.549732e-02	8.082089e-03	0.0	1.489834e-02	8.499328e-03	0.0	1.428260e-02	8.867255e-03	0.0	1.365282e-02	9.183065e-03	0.0	1.301255e-02	9.444695e-03	0.0	1.236603e-02	9.651311e-03	0.0	1.171792e-02	9.803362e-03	0.0	1.107283e-02	9.902365e-03	0.0	1.043513e-02	9.950705e-03	0.0	9.808753e-03	9.951407e-03	0.0	9.190540e-03	9.907199e-03	0.0	8.577011e-03	9.819195e-03	0.0	7.971135e-03	9.688498e-03	0.0	7.375696e-03	9.516376e-03	0.0	6.793304e-03	9.304242e-03	0.0	6.226391e-03	9.053677e-03	0.0	5.677188e-03	8.766486e-03	0.0	5.147564e-03	8.444709e-03	0.0	4.638858e-03	8.090678e-03	0.0	4.152168e-03	7.706974e-03	0.0	3.687885e-03	7.296428e-03	0.0	3.246097e-03	6.861796e-03	0.0	2.837707e-03	6.418681e-03	0.0	2.470487e-03	5.982883e-03	0.0	2.139666e-03	5.556476e-03	0.0	1.841291e-03	5.140388e-03	0.0	1.572145e-03	4.734726e-03	0.0	1.329618e-03	4.338984e-03	0.0	1.111558e-03	3.952235e-03	0.0	9.162638e-04	3.573237e-03	0.0	7.426810e-04	3.200532e-03	0.0	5.897077e-04	2.832699e-03	0.0	4.558697e-04	2.468035e-03	0.0	3.410581e-04	2.105126e-03	0.0	2.439479e-04	1.742443e-03	0.0	1.640573e-04	1.378052e-03	0.0	1.000719e-04	1.011065e-03	0.0	5.107958e-05	6.388541e-04	0.0	1.880001e-05	2.600392e-04	0.0	-6.187699e-07	-1.290785e-04	0.0	6.314104e-05	-5.166998e-04	0.0	1.999080e-04	-9.071566e-04	0.0	3.544165e-04	-1.302732e-03	0.0	5.485240e-04	-1.699942e-03	0.0	8.036950e-04	-2.084649e-03	0.0	1.111739e-03	-2.458571e-03	0.0	1.475253e-03	-2.815642e-03	0.0	1.878035e-03	-3.169621e-03	0.0	2.324517e-03	-3.518559e-03	0.0	2.786630e-03	-3.872395e-03	0.0	3.250566e-03	-4.223904e-03	0.0	3.711132e-03	-4.579826e-03	0.0	
CELLS 240	720
2	1	0	2	2	1	2	3	2	2	4	3	2	5	4	2	6	5	2	7	6	2	8	7	2	9	8	2	10	9	2	11	10	2	12	11	2	13	12	2	14	13	2	15	14	2	16	15	2	17	16	2	18	17	2	19	18	2	20	19	2	21	20	2	22	21	2	23	22	2	24	23	2	25	24	2	26	25	2	27	26	2	28	27	2	29	28	2	30	29	2	31	30	2	32	31	2	33	32	2	34	33	2	35	34	2	36	35	2	37	36	2	38	37	2	39	38	2	40	39	2	41	40	2	42	41	2	43	42	2	44	43	2	45	44	2	46	45	2	47	46	2	48	47	2	49	48	2	50	49	2	51	50	2	52	51	2	53	52	2	54	53	2	55	54	2	56	55	2	57	56	2	58	57	2	59	58	2	60	59	2	61	60	2	62	61	2	63	62	2	64	63	2	65	64	2	66	65	2	67	66	2	68	67	2	69	68	2	70	69	2	71	70	2	72	71	2	73	72	2	74	73	2	75	74	2	76	75	2	77	76	2	78	77	2	79	78	2	80	79	2	81	80	2	82	81	2	83	82	2	84	83	2	85	84	2	86	85	2	87	86	2	88	87	2	89	88	2	90	89	2	91	90	2	92	91	2	93	92	2	94	93	2	95	94	2	96	95	2	97	96	2	98	97	2	99	98	2	100	99	2	101	100	2	102	101	2	103	102	2	104	103	2	105	104	2	106	105	2	107	106	2	108	107	2	109	108	2	110	109	2	111	110	2	112	111	2	113	112	2	114	113	2	115	114	2	116	115	2	117	116	2	118	117	2	119	118	2	120	119	2	121	120	2	122	121	2	123	122	2	124	123	2	125	124	2	126	125	2	127	126	2	128	127	2	129	128	2	130	129	2	131	130	2	132	131	2	133	132	2	134	133	2	135	134	2	136	135	2	137	136	2	138	137	2	139	138	2	140	139	2	141	140	2	142	141	2	143	142	2	144	143	2	145	144	2	146	145	2	147	146	2	148	147	2	149	148	2	150	149	2	151	150	2	152	151	2	153	152	2	154	153	2	155	154	2	156	155	2	157	156	2	158	157	2	159	158	2	160	159	2	161	160	2	162	161	2	163	162	2	164	163	2	165	164	2	166	165	2	167	166	2	168	167	2	169	168	2	170	169	2	171	170	2	172	171	2	173	172	2	174	173	2	175	174	2	176	175	2	177	176	2	178	177	2	179	178	2	180	179	2	181	180	2	182	181	2	183	182	2	184	183	2	185	184	2	186	185	2	187	186	2	188	187	2	189	188	2	190	189	2	191	190	2	192	191	2	193	192	2	194	193	2	195	194	2	196	195	2	197	196	2	198	197	2	199	198	2	200	199	2	201	200	2	202	201	2	203	202	2	204	203	2	205	204	2	206	205	2	207	206	2	208	207	2	209	208	2	210	209	2	211	210	2	212	211	2	213	212	2	214	213	2	215	214	2	216	215	2	217	216	2	218	217	2	219	218	2	220	219	2	221	220	2	222	221	2	223	222	2	224	223	2	225	224	2	226	225	2	227	226	2	228	227	2	229	228	2	230	229	2	231	230	2	232	231	2	233	232	2	234	233	2	235	234	2	236	235	2	237	236	2	238	237	2	239	238	2	0	239	
CELL_TYPES 240
3	3	3	3	3	3	3	3	3	3	3	3	3	3	3	3	3	3	3	3	3	3	3	3	3	3	3	3	3	3	3	3	3	3	3	3	3	3	3	3	3	3	3	3	3	3	3	3	3	3	3	3	3	3	3	3	3	3	3	3	3	3	3	3	3	3	3	3	3	3	3	3	3	3	3	3	3	3	3	3	3	3	3	3	3	3	3	3	3	3	3	3	3	3	3	3	3	3	3	3	3	3	3	3	3	3	3	3	3	3	3	3	3	3	3	3	3	3	3	3	3	3	3	3	3	3	3	3	3	3	3	3	3	3	3	3	3	3	3	3	3	3	3	3	3	3	3	3	3	3	3	3	3	3	3	3	3	3	3	3	3	3	3	3	3	3	3	3	3	3	3	3	3	3	3	3	3	3	3	3	3	3	3	3	3	3	3	3	3	3	3	3	3	3	3	3	3	3	3	3	3	3	3	3	3	3	3	3	3	3	3	3	3	3	3	3	3	3	3	3	3	3	3	3	3	3	3	3	3	3	3	3	3	3	3	3	3	3	3	3	
POINT_DATA 240

SCALARS Density double 1
LOOKUP_TABLE default
1.783107e-01	1.782229e-01	1.781156e-01	1.779959e-01	1.778885e-01	1.778028e-01	1.777391e-01	1.776920e-01	1.776434e-01	1.775850e-01	1.775159e-01	1.774272e-01	1.773235e-01	1.772108e-01	1.771004e-01	1.770072e-01	1.769189e-01	1.768350e-01	1.767516e-01	1.766519e-01	1.765344e-01	1.763893e-01	1.762217e-01	1.760359e-01	1.758300e-01	1.756101e-01	1.753728e-01	1.751162e-01	1.748272e-01	1.744947e-01	1.741176e-01	1.736836e-01	1.731879e-01	1.726405e-01	1.720463e-01	1.714051e-01	1.707110e-01	1.699488e-01	1.691055e-01	1.681545e-01	1.670767e-01	1.658892e-01	1.646052e-01	1.632342e-01	1.618019e-01	1.603153e-01	1.587375e-01	1.570289e-01	1.551622e-01	1.530966e-01	1.507350e-01	1.486542e-01	1.465702e-01	1.444054e-01	1.426734e-01	1.410324e-01	1.391829e-01	1.370214e-01	1.348338e-01	1.327493e-01	1.305442e-01	1.289073e-01	1.272426e-01	1.257316e-01	1.239907e-01	1.218077e-01	1.179183e-01	1.146343e-01	1.138941e-01	1.149941e-01	1.155468e-01	1.163708e-01	1.169741e-01	1.174061e-01	1.176185e-01	1.176800e-01	1.176799e-01	1.177890e-01	1.180321e-01	1.184015e-01	1.187996e-01	1.191409e-01	1.192884e-01	1.190254e-01	1.184791e-01	1.178125e-01	1.174135e-01	1.172336e-01	1.169366e-01	1.159991e-01	1.144366e-01	1.131964e-01	1.132662e-01	1.143481e-01	1.154248e-01	1.158609e-01	1.161843e-01	1.164462e-01	1.166575e-01	1.168358e-01	1.169870e-01	1.171138e-01	1.172196e-01	1.173037e-01	1.173681e-01	1.174132e-01	1.174401e-01	1.174503e-01	1.174455e-01	1.174274e-01	1.173957e-01	1.173561e-01	1.173097e-01	1.172579e-01	1.172061e-01	1.171535e-01	1.171035e-01	1.170542e-01	1.170037e-01	1.169531e-01	1.168941e-01	1.168247e-01	1.167444e-01	1.166475e-01	1.165333e-01	1.163988e-01	1.162431e-01	1.160706e-01	1.158781e-01	1.156760e-01	1.154708e-01	1.152553e-01	1.150298e-01	1.148008e-01	1.145612e-01	1.143077e-01	1.140340e-01	1.137358e-01	1.134059e-01	1.130400e-01	1.126534e-01	1.122489e-01	1.118092e-01	1.113891e-01	1.110108e-01	1.106547e-01	1.103311e-01	1.100582e-01	1.098321e-01	1.096439e-01	1.094874e-01	1.093477e-01	1.092113e-01	1.090684e-01	1.089088e-01	1.087283e-01	1.085327e-01	1.083351e-01	1.081509e-01	1.079991e-01	1.078994e-01	1.078670e-01	1.079162e-01	1.080479e-01	1.082488e-01	1.084979e-01	1.087791e-01	1.090791e-01	1.093916e-01	1.097276e-01	1.101087e-01	1.105609e-01	1.111062e-01	1.117534e-01	1.124935e-01	1.132947e-01	1.141095e-01	1.148943e-01	1.155978e-01	1.161841e-01	1.166378e-01	1.169479e-01	1.171405e-01	1.172477e-01	1.173055e-01	1.174195e-01	1.176729e-01	1.181401e-01	1.189609e-01	1.202228e-01	1.219599e-01	1.241499e-01	1.267556e-01	1.297154e-01	1.328111e-01	1.359865e-01	1.391212e-01	1.421519e-01	1.451640e-01	1.480757e-01	1.508591e-01	1.535013e-01	1.559980e-01	1.583555e-01	1.605876e-01	1.626929e-01	1.646580e-01	1.664735e-01	1.681363e-01	1.696229e-01	1.709075e-01	1.720008e-01	1.729290e-01	1.737256e-01	1.744192e-01	1.750325e-01	1.755818e-01	1.760841e-01	1.765559e-01	1.769943e-01	1.774027e-01	1.777858e-01	1.781332e-01	1.784428e-01	1.787048e-01	1.789375e-01	1.790835e-01	1.792887e-01	1.794347e-01	1.794598e-01	1.794142e-01	1.792415e-01	1.790116e-01	1.788019e-01	1.786399e-01	1.785286e-01	1.784737e-01	1.784470e-01	1.784090e-01	1.783667e-01	
VECTORS Momentum double
0.000000e+00	0.000000e+00	0.0	0.000000e+00	0.000000e+00	0.0	0.000000e+00	0.000000e+00	0.0	0.000000e+00	0.000000e+00	0.0	0.000000e+00	0.000000e+00	0.0	0.000000e+00	0.000000e+00	0.0	0.000000e+00	0.000000e+00	0.0	0.000000e+00	0.000000e+00	0.0	0.000000e+00	0.000000e+00	0.0	0.000000e+00	0.000000e+00	0.0	0.000000e+00	0.000000e+00	0.0	0.000000e+00	0.000000e+00	0.0	0.000000e+00	0.000000e+00	0.0	0.000000e+00	0.000000e+00	0.0	0.000000e+00	0.000000e+00	0.0	0.000000e+00	0.000000e+00	0.0	0.000000e+00	0.000000e+00	0.0	0.000000e+00	0.000000e+00	0.0	0.000000e+00	0.000000e+00	0.0	0.000000e+00	0.000000e+00	0.0	0.000000e+00	0.000000e+00	0.0	0.000000e+00	0.000000e+00	0.0	0.000000e+00	0.000000e+00	0.0	0.000000e+00	0.000000e+00	0.0	0.000000e+00	0.000000e+00	0.0	0.000000e+00	0.000000e+00	0.0	0.000000e+00	0.000000e+00	0.0	0.000000e+00	0.000000e+00	0.0	0.000000e+00	0.000000e+00	0.0	0.000000e+00	0.000000e+00	0.0	0.000000e+00	0.000000e+00	0.0	0.000000e+00	0.000000e+00	0.0	0.000000e+00	0.000000e+00	0.0	0.000000e+00	0.000000e+00	0.0	0.000000e+00	0.000000e+00	0.0	0.000000e+00	0.000000e+00	0.0	0.000000e+00	0.000000e+00	0.0	0.000000e+00	0.000000e+00	0.0	0.000000e+00	0.000000e+00	0.0	0.000000e+00	0.000000e+00	0.0	0.000000e+00	0.000000e+00	0.0	0.000000e+00	0.000000e+00	0.0	0.000000e+00	0.000000e+00	0.0	0.000000e+00	0.000000e+00	0.0	0.000000e+00	0.000000e+00	0.0	0.000000e+00	0.000000e+00	0.0	0.000000e+00	0.000000e+00	0.0	0.000000e+00	0.000000e+00	0.0	0.000000e+00	0.000000e+00	0.0	0.000000e+00	0.000000e+00	0.0	0.000000e+00	0.000000e+00	0.0	0.000000e+00	0.000000e+00	0.0	0.000000e+00	0.000000e+00	0.0	0.000000e+00	0.000000e+00	0.0	0.000000e+00	0.000000e+00	0.0	0.000000e+00	0.000000e+00	0.0	0.000000e+00	0.000000e+00	0.0	0.000000e+00	0.000000e+00	0.0	0.000000e+00	0.000000e+00	0.0	0.000000e+00	0.000000e+00	0.0	0.000000e+00	0.000000e+00	0.0	0.000000e+00	0.000000e+00	0.0	0.000000e+00	0.000000e+00	0.0	0.000000e+00	0.000000e+00	0.0	0.000000e+00	0.000000e+00	0.0	0.000000e+00	0.000000e+00	0.0	0.000000e+00	0.000000e+00	0.0	0.000000e+00	0.000000e+00	0.0	0.000000e+00	0.000000e+00	0.0	0.000000e+00	0.000000e+00	0.0	0.000000e+00	0.000000e+00	0.0	0.000000e+00	0.000000e+00	0.0	0.000000e+00	0.000000e+00	0.0	0.000000e+00	0.000000e+00	0.0	0.000000e+00	0.000000e+00	0.0	0.000000e+00	0.000000e+00	0.0	0.000000e+00	0.000000e+00	0.0	0.000000e+00	0.000000e+00	0.0	0.000000e+00	0.000000e+00	0.0	0.000000e+00	0.000000e+00	0.0	0.000000e+00	0.000000e+00	0.0	0.000000e+00	0.000000e+00	0.0	0.000000e+00	0.000000e+00	0.0	0.000000e+00	0.000000e+00	0.0	0.000000e+00	0.000000e+00	0.0	0.000000e+00	0.000000e+00	0.0	0.000000e+00	0.000000e+00	0.0	0.000000e+00	0.000000e+00	0.0	0.000000e+00	0.000000e+00	0.0	0.000000e+00	0.000000e+00	0.0	0.000000e+00	0.000000e+00	0.0	0.000000e+00	0.000000e+00	0.0	0.000000e+00	0.000000e+00	0.0	0.000000e+00	0.000000e+00	0.0	0.000000e+00	0.000000e+00	0.0	0.000000e+00	0.000000e+00	0.0	0.000000e+00	0.000000e+00	0.0	0.000000e+00	0.000000e+00	0.0	0.000000e+00	0.000000e+00	0.0	0.000000e+00	0.000000e+00	0.0	0.000000e+00	0.000000e+00	0.0	0.000000e+00	0.000000e+00	0.0	0.000000e+00	0.000000e+00	0.0	0.000000e+00	0.000000e+00	0.0	0.000000e+00	0.000000e+00	0.0	0.000000e+00	0.000000e+00	0.0	0.000000e+00	0.000000e+00	0.0	0.000000e+00	0.000000e+00	0.0	0.000000e+00	0.000000e+00	0.0	0.000000e+00	0.000000e+00	0.0	0.000000e+00	0.000000e+00	0.0	0.000000e+00	0.000000e+00	0.0	0.000000e+00	0.000000e+00	0.0	0.000000e+00	0.000000e+00	0.0	0.000000e+00	0.000000e+00	0.0	0.000000e+00	0.000000e+00	0.0	0.000000e+00	0.000000e+00	0.0	0.000000e+00	0.000000e+00	0.0	0.000000e+00	0.000000e+00	0.0	0.000000e+00	0.000000e+00	0.0	0.000000e+00	0.000000e+00	0.0	0.000000e+00	0.000000e+00	0.0	0.000000e+00	0.000000e+00	0.0	0.000000e+00	0.000000e+00	0.0	0.000000e+00	0.000000e+00	0.0	0.000000e+00	0.000000e+00	0.0	0.000000e+00	0.000000e+00	0.0	0.000000e+00	0.000000e+00	0.0	0.000000e+00	0.000000e+00	0.0	0.000000e+00	0.000000e+00	0.0	0.000000e+00	0.000000e+00	0.0	0.000000e+00	0.000000e+00	0.0	0.000000e+00	0.000000e+00	0.0	0.000000e+00	0.000000e+00	0.0	0.000000e+00	0.000000e+00	0.0	0.000000e+00	0.000000e+00	0.0	0.000000e+00	0.000000e+00	0.0	0.000000e+00	0.000000e+00	0.0	0.000000e+00	0.000000e+00	0.0	0.000000e+00	0.000000e+00	0.0	0.000000e+00	0.000000e+00	0.0	0.000000e+00	0.000000e+00	0.0	0.000000e+00	0.000000e+00	0.0	0.000000e+00	0.000000e+00	0.0	0.000000e+00	0.000000e+00	0.0	0.000000e+00	0.000000e+00	0.0	0.000000e+00	0.000000e+00	0.0	0.000000e+00	0.000000e+00	0.0	0.000000e+00	0.000000e+00	0.0	0.000000e+00	0.000000e+00	0.0	0.000000e+00	0.000000e+00	0.0	0.000000e+00	0.000000e+00	0.0	0.000000e+00	0.000000e+00	0.0	0.000000e+00	0.000000e+00	0.0	0.000000e+00	0.000000e+00	0.0	0.000000e+00	0.000000e+00	0.0	0.000000e+00	0.000000e+00	0.0	0.000000e+00	0.000000e+00	0.0	0.000000e+00	0.000000e+00	0.0	0.000000e+00	0.000000e+00	0.0	0.000000e+00	0.000000e+00	0.0	0.000000e+00	0.000000e+00	0.0	0.000000e+00	0.000000e+00	0.0	0.000000e+00	0.000000e+00	0.0	0.000000e+00	0.000000e+00	0.0	0.000000e+00	0.000000e+00	0.0	0.000000e+00	0.000000e+00	0.0	0.000000e+00	0.000000e+00	0.0	0.000000e+00	0.000000e+00	0.0	0.000000e+00	0.000000e+00	0.0	0.000000e+00	0.000000e+00	0.0	0.000000e+00	0.000000e+00	0.0	0.000000e+00	0.000000e+00	0.0	0.000000e+00	0.000000e+00	0.0	0.000000e+00	0.000000e+00	0.0	0.000000e+00	0.000000e+00	0.0	0.000000e+00	0.000000e+00	0.0	0.000000e+00	0.000000e+00	0.0	0.000000e+00	0.000000e+00	0.0	0.000000e+00	0.000000e+00	0.0	0.000000e+00	0.000000e+00	0.0	0.000000e+00	0.000000e+00	0.0	0.000000e+00	0.000000e+00	0.0	0.000000e+00	0.000000e+00	0.0	0.000000e+00	0.000000e+00	0.0	0.000000e+00	0.000000e+00	0.0	0.000000e+00	0.000000e+00	0.0	0.000000e+00	0.000000e+00	0.0	0.000000e+00	0.000000e+00	0.0	0.000000e+00	0.000000e+00	0.0	0.000000e+00	0.000000e+00	0.0	0.000000e+00	0.000000e+00	0.0	0.000000e+00	0.000000e+00	0.0	0.000000e+00	0.000000e+00	0.0	0.000000e+00	0.000000e+00	0.0	0.000000e+00	0.000000e+00	0.0	0.000000e+00	0.000000e+00	0.0	0.000000e+00	0.000000e+00	0.0	0.000000e+00	0.000000e+00	0.0	0.000000e+00	0.000000e+00	0.0	0.000000e+00	0.000000e+00	0.0	0.000000e+00	0.000000e+00	0.0	0.000000e+00	0.000000e+00	0.0	0.000000e+00	0.000000e+00	0.0	0.000000e+00	0.000000e+00	0.0	0.000000e+00	0.000000e+00	0.0	0.000000e+00	0.000000e+00	0.0	0.000000e+00	0.000000e+00	0.0	0.000000e+00	0.000000e+00	0.0	0.000000e+00	0.000000e+00	0.0	0.000000e+00	0.000000e+00	0.0	0.000000e+00	0.000000e+00	0.0	0.000000e+00	0.000000e+00	0.0	0.000000e+00	0.000000e+00	0.0	0.000000e+00	0.000000e+00	0.0	0.000000e+00	0.000000e+00	0.0	0.000000e+00	0.000000e+00	0.0	0.000000e+00	0.000000e+00	0.0	0.000000e+00	0.000000e+00	0.0	0.000000e+00	0.000000e+00	0.0	0.000000e+00	0.000000e+00	0.0	0.000000e+00	0.000000e+00	0.0	0.000000e+00	0.000000e+00	0.0	0.000000e+00	0.000000e+00	0.0	0.000000e+00	0.000000e+00	0.0	0.000000e+00	0.000000e+00	0.0	0.000000e+00	0.000000e+00	0.0	0.000000e+00	0.000000e+00	0.0	0.000000e+00	0.000000e+00	0.0	0.000000e+00	0.000000e+00	0.0	0.000000e+00	0.000000e+00	0.0	0.000000e+00	0.000000e+00	0.0	0.000000e+00	0.000000e+00	0.0	0.000000e+00	0.000000e+00	0.0	0.000000e+00	0.000000e+00	0.0	0.000000e+00	0.000000e+00	0.0	0.000000e+00	0.000000e+00	0.0	0.000000e+00	0.000000e+00	0.0	0.000000e+00	0.000000e+00	0.0	0.000000e+00	0.000000e+00	0.0	
SCALARS Energy double 1
LOOKUP_TABLE default
3.160428e-01	3.158546e-01	3.156574e-01	3.154571e-01	3.152738e-01	3.151145e-01	3.149721e-01	3.148362e-01	3.146943e-01	3.145340e-01	3.143532e-01	3.141516e-01	3.139346e-01	3.137145e-01	3.134993e-01	3.132950e-01	3.130999e-01	3.129047e-01	3.127041e-01	3.124848e-01	3.122363e-01	3.119516e-01	3.116294e-01	3.112798e-01	3.108999e-01	3.104938e-01	3.100595e-01	3.095874e-01	3.090613e-01	3.084557e-01	3.077670e-01	3.069773e-01	3.060786e-01	3.050886e-01	3.040174e-01	3.028615e-01	3.016083e-01	3.002292e-01	2.986911e-01	2.969518e-01	2.949807e-01	2.928085e-01	2.904714e-01	2.879923e-01	2.853995e-01	2.826912e-01	2.798058e-01	2.766487e-01	2.731535e-01	2.693078e-01	2.650910e-01	2.614253e-01	2.577337e-01	2.538705e-01	2.506382e-01	2.475169e-01	2.440644e-01	2.401317e-01	2.362197e-01	2.325238e-01	2.286404e-01	2.257190e-01	2.226697e-01	2.198577e-01	2.165484e-01	2.120858e-01	2.054752e-01	1.992263e-01	1.987669e-01	2.028879e-01	2.053106e-01	2.066719e-01	2.077806e-01	2.085382e-01	2.088754e-01	2.089253e-01	2.088760e-01	2.090642e-01	2.095345e-01	2.102786e-01	2.110666e-01	2.117144e-01	2.119781e-01	2.114914e-01	2.104570e-01	2.090991e-01	2.083371e-01	2.080674e-01	2.075296e-01	2.059355e-01	2.024818e-01	1.983931e-01	1.977468e-01	1.999000e-01	2.017601e-01	2.029202e-01	2.035426e-01	2.039814e-01	2.043517e-01	2.046763e-01	2.049539e-01	2.051873e-01	2.053804e-01	2.055353e-01	2.056539e-01	2.057377e-01	2.057887e-01	2.058093e-01	2.058030e-01	2.057716e-01	2.057178e-01	2.056476e-01	2.055651e-01	2.054740e-01	2.053811e-01	2.052878e-01	2.051981e-01	2.051099e-01	2.050206e-01	2.049284e-01	2.048228e-01	2.046995e-01	2.045538e-01	2.043797e-01	2.041732e-01	2.039298e-01	2.036495e-01	2.033353e-01	2.029884e-01	2.026221e-01	2.022473e-01	2.018571e-01	2.014490e-01	2.010311e-01	2.005946e-01	2.001329e-01	1.996350e-01	1.990924e-01	1.984934e-01	1.978303e-01	1.971262e-01	1.963887e-01	1.955970e-01	1.948349e-01	1.941377e-01	1.934865e-01	1.928978e-01	1.923949e-01	1.919740e-01	1.916266e-01	1.913336e-01	1.910722e-01	1.908180e-01	1.905515e-01	1.902535e-01	1.899190e-01	1.895570e-01	1.891878e-01	1.888403e-01	1.885494e-01	1.883515e-01	1.882745e-01	1.883445e-01	1.885650e-01	1.889115e-01	1.893453e-01	1.898374e-01	1.903630e-01	1.909114e-01	1.914999e-01	1.921702e-01	1.929687e-01	1.939380e-01	1.950930e-01	1.964218e-01	1.978637e-01	1.993337e-01	2.007526e-01	2.020245e-01	2.030843e-01	2.039003e-01	2.044503e-01	2.047815e-01	2.049505e-01	2.050168e-01	2.051802e-01	2.055931e-01	2.063788e-01	2.078031e-01	2.100305e-01	2.131162e-01	2.170190e-01	2.216959e-01	2.270771e-01	2.327193e-01	2.385455e-01	2.443290e-01	2.499227e-01	2.554404e-01	2.607431e-01	2.658113e-01	2.706329e-01	2.752071e-01	2.795364e-01	2.836368e-01	2.875030e-01	2.911124e-01	2.944411e-01	2.974931e-01	3.002123e-01	3.025502e-01	3.045355e-01	3.062198e-01	3.076680e-01	3.089328e-01	3.100555e-01	3.110642e-01	3.119913e-01	3.128663e-01	3.136793e-01	3.144435e-01	3.151577e-01	3.158080e-01	3.163836e-01	3.168672e-01	3.173040e-01	3.175458e-01	3.179519e-01	3.182166e-01	3.181982e-01	3.181464e-01	3.178723e-01	3.174348e-01	3.170375e-01	3.167379e-01	3.165532e-01	3.164390e-01	3.163737e-01	3.162707e-01	3.161698e-01	
SCALARS Nu_Tilde double 1
LOOKUP_TABLE default
1.000000e-10	1.000000e-10	1.000000e-10	1.000000e-10	1.000000e-10	1.000000e-10	1.000000e-10	1.000000e-10	1.000000e-10	1.000000e-10	1.000000e-10	1.000000e-10	1.000000e-10	1.000000e-10	1.000000e-10	1.000000e-10	1.000000e-10	1.000000e-10	1.000000e-10	1.000000e-10	1.000000e-10	1.000000e-10	1.000000e-10	1.000000e-10	1.000000e-10	1.000000e-10	1.000000e-10	1.000000e-10	1.000000e-10	1.000000e-10	1.000000e-10	1.000000e-10	1.000000e-10	1.000000e-10	1.000000e-10	1.000000e-10	1.000000e-10	1.000000e-10	1.000000e-10	1.000000e-10	1.000000e-10	1.000000e-10	1.000000e-10	1.000000e-10	1.000000e-10	1.000000e-10	1.000000e-10	1.000000e-10	1.000000e-10	1.000000e-10	1.000000e-10	1.000000e-10	1.000000e-10	1.000000e-10	1.000000e-10	1.000000e-10	1.000000e-10	1.000000e-10	1.000000e-10	1.000000e-10	1.000000e-10	1.000000e-10	1.000000e-10	1.000000e-10	1.000000e-10	1.000000e-10	1.000000e-10	1.000000e-10	1.000000e-10	1.000000e-10	1.000000e-10	1.000000e-10	1.000000e-10	1.000000e-10	1.000000e-10	1.000000e-10	1.000000e-10	1.000000e-10	1.000000e-10	1.000000e-10	1.000000e-10	1.000000e-10	1.000000e-10	1.000000e-10	1.000000e-10	1.000000e-10	1.000000e-10	1.000000e-10	1.000000e-10	1.000000e-10	1.000000e-10	1.000000e-10	1.000000e-10	1.000000e-10	1.000000e-10	1.000000e-10	1.000000e-10	1.000000e-10	1.000000e-10	1.000000e-10	1.000000e-10	1.000000e-10	1.000000e-10	1.000000e-10	1.000000e-10	1.000000e-10	1.000000e-10	1.000000e-10	1.000000e-10	1.000000e-10	1.000000e-10	1.000000e-10	1.000000e-10	1.000000e-10	1.000000e-10	1.000000e-10	1.000000e-10	1.000000e-10	1.000000e-10	1.000000e-10	1.000000e-10	1.000000e-10	1.000000e-10	1.000000e-10	1.000000e-10	1.000000e-10	1.000000e-10	1.000000e-10	1.000000e-10	1.000000e-10	1.000000e-10	1.000000e-10	1.000000e-10	1.000000e-10	1.000000e-10	1.000000e-10	1.000000e-10	1.000000e-10	1.000000e-10	1.000000e-10	1.000000e-10	1.000000e-10	1.000000e-10	1.000000e-10	1.000000e-10	1.000000e-10	1.000000e-10	1.000000e-10	1.000000e-10	1.000000e-10	1.000000e-10	1.000000e-10	1.000000e-10	1.000000e-10	1.000000e-10	1.000000e-10	1.000000e-10	1.000000e-10	1.000000e-10	1.000000e-10	1.000000e-10	1.000000e-10	1.000000e-10	1.000000e-10	1.000000e-10	1.000000e-10	1.000000e-10	1.000000e-10	1.000000e-10	1.000000e-10	1.000000e-10	1.000000e-10	1.000000e-10	1.000000e-10	1.000000e-10	1.000000e-10	1.000000e-10	1.000000e-10	1.000000e-10	1.000000e-10	1.000000e-10	1.000000e-10	1.000000e-10	1.000000e-10	1.000000e-10	1.000000e-10	1.000000e-10	1.000000e-10	1.000000e-10	1.000000e-10	1.000000e-10	1.000000e-10	1.000000e-10	1.000000e-10	1.000000e-10	1.000000e-10	1.000000e-10	1.000000e-10	1.000000e-10	1.000000e-10	1.000000e-10	1.000000e-10	1.000000e-10	1.000000e-10	1.000000e-10	1.000000e-10	1.000000e-10	1.000000e-10	1.000000e-10	1.000000e-10	1.000000e-10	1.000000e-10	1.000000e-10	1.000000e-10	1.000000e-10	1.000000e-10	1.000000e-10	1.000000e-10	1.000000e-10	1.000000e-10	1.000000e-10	1.000000e-10	1.000000e-10	1.000000e-10	1.000000e-10	1.000000e-10	1.000000e-10	1.000000e-10	1.000000e-10	1.000000e-10	1.000000e-10	1.000000e-10	1.000000e-10	1.000000e-10	1.000000e-10	1.000000e-10	1.000000e-10	1.000000e-10	1.000000e-10	1.000000e-10	
SCALARS Pressure double 1
LOOKUP_TABLE default